V -t * -v 1.0a5 -a 0
A -t * -n 1 -p 0 -o 0x7fffffff -c 30 -a 1
A -t * -h 1 -m 1073741823 -s 0
c -t * -i 0 -n Red
c -t * -i 1 -n Blue
n -t * -a 4 -s 4 -S UP -v circle -c black -i black
n -t * -a 0 -s 0 -S UP -v circle -c black -i black
n -t * -a 1 -s 1 -S UP -v circle -c black -i black
n -t * -a 2 -s 2 -S UP -v circle -c black -i black
n -t * -a 3 -s 3 -S UP -v circle -c black -i black
X -t * -n 5 -r 0.5Mb -D 40ms -o left
L -t * -s 5 -d 0 -o up
L -t * -s 5 -d 1 -o down
L -t * -s 5 -d 2 -o up
L -t * -s 5 -d 3 -o down
L -t * -s 5 -d 4 -o up
h -t 0.1 -s 1 -d 5 -p tcp -e 40 -c 0 -i 0 -a 0 -x {1.0 3.0 0 ------- null}
h -t 0.1 -s 2 -d 5 -p tcp -e 40 -c 1 -i 1 -a 1 -x {2.0 4.0 0 ------- null}
+ -t 0.14 -s 1 -d 5 -p tcp -e 40 -c 0 -i 0 -a 0 -x {1.0 3.0 0 ------- null}
- -t 0.14 -s 1 -d 5 -p tcp -e 40 -c 0 -i 0 -a 0 -x {1.0 3.0 0 ------- null}
h -t 0.14 -s 1 -d 5 -p tcp -e 40 -c 0 -i 0 -a 0 -x {1.0 3.0 -1 ------- null}
+ -t 0.14 -s 2 -d 5 -p tcp -e 40 -c 1 -i 1 -a 1 -x {2.0 4.0 0 ------- null}
- -t 0.14 -s 2 -d 5 -p tcp -e 40 -c 1 -i 1 -a 1 -x {2.0 4.0 0 ------- null}
h -t 0.14 -s 2 -d 5 -p tcp -e 40 -c 1 -i 1 -a 1 -x {2.0 4.0 -1 ------- null}
d -t 0.140004 -s 4 -d 5 -p tcp -e 40 -c 0 -i 0 -a 0 -x {1.0 3.0 0 ------- null}
d -t 0.140004 -s 2 -d 5 -p tcp -e 40 -c 0 -i 0 -a 0 -x {1.0 3.0 0 ------- null}
d -t 0.140004 -s 0 -d 5 -p tcp -e 40 -c 0 -i 0 -a 0 -x {1.0 3.0 0 ------- null}
d -t 0.140004 -s 3 -d 5 -p tcp -e 40 -c 1 -i 1 -a 1 -x {2.0 4.0 0 ------- null}
d -t 0.140004 -s 1 -d 5 -p tcp -e 40 -c 1 -i 1 -a 1 -x {2.0 4.0 0 ------- null}
d -t 0.140004 -s 0 -d 5 -p tcp -e 40 -c 1 -i 1 -a 1 -x {2.0 4.0 0 ------- null}
r -t 0.180004 -s 5 -d 3 -p tcp -e 40 -c 0 -i 0 -a 0 -x {1.0 3.0 0 ------- null}
h -t 0.180004 -s 3 -d 5 -p ack -e 40 -c 0 -i 2 -a 0 -x {3.0 1.0 0 ------- null}
r -t 0.180004 -s 5 -d 4 -p tcp -e 40 -c 1 -i 1 -a 1 -x {2.0 4.0 0 ------- null}
h -t 0.180004 -s 4 -d 5 -p ack -e 40 -c 1 -i 3 -a 1 -x {4.0 2.0 0 ------- null}
+ -t 0.220004 -s 3 -d 5 -p ack -e 40 -c 0 -i 2 -a 0 -x {3.0 1.0 0 ------- null}
- -t 0.220004 -s 3 -d 5 -p ack -e 40 -c 0 -i 2 -a 0 -x {3.0 1.0 0 ------- null}
h -t 0.220004 -s 3 -d 5 -p ack -e 40 -c 0 -i 2 -a 0 -x {3.0 1.0 -1 ------- null}
+ -t 0.220004 -s 4 -d 5 -p ack -e 40 -c 1 -i 3 -a 1 -x {4.0 2.0 0 ------- null}
- -t 0.220004 -s 4 -d 5 -p ack -e 40 -c 1 -i 3 -a 1 -x {4.0 2.0 0 ------- null}
h -t 0.220004 -s 4 -d 5 -p ack -e 40 -c 1 -i 3 -a 1 -x {4.0 2.0 -1 ------- null}
d -t 0.220008 -s 4 -d 5 -p ack -e 40 -c 0 -i 2 -a 0 -x {3.0 1.0 0 ------- null}
d -t 0.220008 -s 2 -d 5 -p ack -e 40 -c 0 -i 2 -a 0 -x {3.0 1.0 0 ------- null}
d -t 0.220008 -s 0 -d 5 -p ack -e 40 -c 0 -i 2 -a 0 -x {3.0 1.0 0 ------- null}
d -t 0.220008 -s 3 -d 5 -p ack -e 40 -c 1 -i 3 -a 1 -x {4.0 2.0 0 ------- null}
d -t 0.220008 -s 1 -d 5 -p ack -e 40 -c 1 -i 3 -a 1 -x {4.0 2.0 0 ------- null}
d -t 0.220008 -s 0 -d 5 -p ack -e 40 -c 1 -i 3 -a 1 -x {4.0 2.0 0 ------- null}
r -t 0.260008 -s 5 -d 1 -p ack -e 40 -c 0 -i 2 -a 0 -x {3.0 1.0 0 ------- null}
h -t 0.260008 -s 1 -d 5 -p tcp -e 1040 -c 0 -i 4 -a 0 -x {1.0 3.0 1 ------- null}
h -t 0.260008 -s 1 -d 5 -p tcp -e 1040 -c 0 -i 5 -a 0 -x {1.0 3.0 2 ------- null}
r -t 0.260008 -s 5 -d 2 -p ack -e 40 -c 1 -i 3 -a 1 -x {4.0 2.0 0 ------- null}
h -t 0.260008 -s 2 -d 5 -p tcp -e 1040 -c 1 -i 6 -a 1 -x {2.0 4.0 1 ------- null}
h -t 0.260008 -s 2 -d 5 -p tcp -e 1040 -c 1 -i 7 -a 1 -x {2.0 4.0 2 ------- null}
+ -t 0.300008 -s 1 -d 5 -p tcp -e 1040 -c 0 -i 4 -a 0 -x {1.0 3.0 1 ------- null}
- -t 0.300008 -s 1 -d 5 -p tcp -e 1040 -c 0 -i 4 -a 0 -x {1.0 3.0 1 ------- null}
h -t 0.300008 -s 1 -d 5 -p tcp -e 1040 -c 0 -i 4 -a 0 -x {1.0 3.0 -1 ------- null}
+ -t 0.300008 -s 1 -d 5 -p tcp -e 1040 -c 0 -i 5 -a 0 -x {1.0 3.0 2 ------- null}
+ -t 0.300008 -s 2 -d 5 -p tcp -e 1040 -c 1 -i 6 -a 1 -x {2.0 4.0 1 ------- null}
- -t 0.300008 -s 2 -d 5 -p tcp -e 1040 -c 1 -i 6 -a 1 -x {2.0 4.0 1 ------- null}
h -t 0.300008 -s 2 -d 5 -p tcp -e 1040 -c 1 -i 6 -a 1 -x {2.0 4.0 -1 ------- null}
+ -t 0.300008 -s 2 -d 5 -p tcp -e 1040 -c 1 -i 7 -a 1 -x {2.0 4.0 2 ------- null}
d -t 0.300012 -s 4 -d 5 -p tcp -e 1040 -c 0 -i 4 -a 0 -x {1.0 3.0 1 ------- null}
d -t 0.300012 -s 2 -d 5 -p tcp -e 1040 -c 0 -i 4 -a 0 -x {1.0 3.0 1 ------- null}
d -t 0.300012 -s 0 -d 5 -p tcp -e 1040 -c 0 -i 4 -a 0 -x {1.0 3.0 1 ------- null}
d -t 0.300012 -s 3 -d 5 -p tcp -e 1040 -c 1 -i 6 -a 1 -x {2.0 4.0 1 ------- null}
d -t 0.300012 -s 1 -d 5 -p tcp -e 1040 -c 1 -i 6 -a 1 -x {2.0 4.0 1 ------- null}
d -t 0.300012 -s 0 -d 5 -p tcp -e 1040 -c 1 -i 6 -a 1 -x {2.0 4.0 1 ------- null}
- -t 0.304424 -s 1 -d 5 -p tcp -e 1040 -c 0 -i 5 -a 0 -x {1.0 3.0 2 ------- null}
h -t 0.304424 -s 1 -d 5 -p tcp -e 1040 -c 0 -i 5 -a 0 -x {1.0 3.0 -1 ------- null}
- -t 0.304424 -s 2 -d 5 -p tcp -e 1040 -c 1 -i 7 -a 1 -x {2.0 4.0 2 ------- null}
h -t 0.304424 -s 2 -d 5 -p tcp -e 1040 -c 1 -i 7 -a 1 -x {2.0 4.0 -1 ------- null}
d -t 0.304428 -s 4 -d 5 -p tcp -e 1040 -c 0 -i 5 -a 0 -x {1.0 3.0 2 ------- null}
d -t 0.304428 -s 2 -d 5 -p tcp -e 1040 -c 0 -i 5 -a 0 -x {1.0 3.0 2 ------- null}
d -t 0.304428 -s 0 -d 5 -p tcp -e 1040 -c 0 -i 5 -a 0 -x {1.0 3.0 2 ------- null}
d -t 0.304428 -s 3 -d 5 -p tcp -e 1040 -c 1 -i 7 -a 1 -x {2.0 4.0 2 ------- null}
d -t 0.304428 -s 1 -d 5 -p tcp -e 1040 -c 1 -i 7 -a 1 -x {2.0 4.0 2 ------- null}
d -t 0.304428 -s 0 -d 5 -p tcp -e 1040 -c 1 -i 7 -a 1 -x {2.0 4.0 2 ------- null}
r -t 0.340012 -s 5 -d 3 -p tcp -e 1040 -c 0 -i 4 -a 0 -x {1.0 3.0 1 ------- null}
h -t 0.340012 -s 3 -d 5 -p ack -e 40 -c 0 -i 8 -a 0 -x {3.0 1.0 1 ------- null}
r -t 0.340012 -s 5 -d 4 -p tcp -e 1040 -c 1 -i 6 -a 1 -x {2.0 4.0 1 ------- null}
h -t 0.340012 -s 4 -d 5 -p ack -e 40 -c 1 -i 9 -a 1 -x {4.0 2.0 1 ------- null}
r -t 0.344428 -s 5 -d 3 -p tcp -e 1040 -c 0 -i 5 -a 0 -x {1.0 3.0 2 ------- null}
h -t 0.344428 -s 3 -d 5 -p ack -e 40 -c 0 -i 10 -a 0 -x {3.0 1.0 2 ------- null}
r -t 0.344428 -s 5 -d 4 -p tcp -e 1040 -c 1 -i 7 -a 1 -x {2.0 4.0 2 ------- null}
h -t 0.344428 -s 4 -d 5 -p ack -e 40 -c 1 -i 11 -a 1 -x {4.0 2.0 2 ------- null}
+ -t 0.380012 -s 3 -d 5 -p ack -e 40 -c 0 -i 8 -a 0 -x {3.0 1.0 1 ------- null}
- -t 0.380012 -s 3 -d 5 -p ack -e 40 -c 0 -i 8 -a 0 -x {3.0 1.0 1 ------- null}
h -t 0.380012 -s 3 -d 5 -p ack -e 40 -c 0 -i 8 -a 0 -x {3.0 1.0 -1 ------- null}
+ -t 0.380012 -s 4 -d 5 -p ack -e 40 -c 1 -i 9 -a 1 -x {4.0 2.0 1 ------- null}
- -t 0.380012 -s 4 -d 5 -p ack -e 40 -c 1 -i 9 -a 1 -x {4.0 2.0 1 ------- null}
h -t 0.380012 -s 4 -d 5 -p ack -e 40 -c 1 -i 9 -a 1 -x {4.0 2.0 -1 ------- null}
d -t 0.380016 -s 4 -d 5 -p ack -e 40 -c 0 -i 8 -a 0 -x {3.0 1.0 1 ------- null}
d -t 0.380016 -s 2 -d 5 -p ack -e 40 -c 0 -i 8 -a 0 -x {3.0 1.0 1 ------- null}
d -t 0.380016 -s 0 -d 5 -p ack -e 40 -c 0 -i 8 -a 0 -x {3.0 1.0 1 ------- null}
d -t 0.380016 -s 3 -d 5 -p ack -e 40 -c 1 -i 9 -a 1 -x {4.0 2.0 1 ------- null}
d -t 0.380016 -s 1 -d 5 -p ack -e 40 -c 1 -i 9 -a 1 -x {4.0 2.0 1 ------- null}
d -t 0.380016 -s 0 -d 5 -p ack -e 40 -c 1 -i 9 -a 1 -x {4.0 2.0 1 ------- null}
+ -t 0.384428 -s 3 -d 5 -p ack -e 40 -c 0 -i 10 -a 0 -x {3.0 1.0 2 ------- null}
- -t 0.384428 -s 3 -d 5 -p ack -e 40 -c 0 -i 10 -a 0 -x {3.0 1.0 2 ------- null}
h -t 0.384428 -s 3 -d 5 -p ack -e 40 -c 0 -i 10 -a 0 -x {3.0 1.0 -1 ------- null}
+ -t 0.384428 -s 4 -d 5 -p ack -e 40 -c 1 -i 11 -a 1 -x {4.0 2.0 2 ------- null}
- -t 0.384428 -s 4 -d 5 -p ack -e 40 -c 1 -i 11 -a 1 -x {4.0 2.0 2 ------- null}
h -t 0.384428 -s 4 -d 5 -p ack -e 40 -c 1 -i 11 -a 1 -x {4.0 2.0 -1 ------- null}
d -t 0.384432 -s 4 -d 5 -p ack -e 40 -c 0 -i 10 -a 0 -x {3.0 1.0 2 ------- null}
d -t 0.384432 -s 2 -d 5 -p ack -e 40 -c 0 -i 10 -a 0 -x {3.0 1.0 2 ------- null}
d -t 0.384432 -s 0 -d 5 -p ack -e 40 -c 0 -i 10 -a 0 -x {3.0 1.0 2 ------- null}
d -t 0.384432 -s 3 -d 5 -p ack -e 40 -c 1 -i 11 -a 1 -x {4.0 2.0 2 ------- null}
d -t 0.384432 -s 1 -d 5 -p ack -e 40 -c 1 -i 11 -a 1 -x {4.0 2.0 2 ------- null}
d -t 0.384432 -s 0 -d 5 -p ack -e 40 -c 1 -i 11 -a 1 -x {4.0 2.0 2 ------- null}
r -t 0.420016 -s 5 -d 1 -p ack -e 40 -c 0 -i 8 -a 0 -x {3.0 1.0 1 ------- null}
h -t 0.420016 -s 1 -d 5 -p tcp -e 1040 -c 0 -i 12 -a 0 -x {1.0 3.0 3 ------- null}
h -t 0.420016 -s 1 -d 5 -p tcp -e 1040 -c 0 -i 13 -a 0 -x {1.0 3.0 4 ------- null}
r -t 0.420016 -s 5 -d 2 -p ack -e 40 -c 1 -i 9 -a 1 -x {4.0 2.0 1 ------- null}
h -t 0.420016 -s 2 -d 5 -p tcp -e 1040 -c 1 -i 14 -a 1 -x {2.0 4.0 3 ------- null}
h -t 0.420016 -s 2 -d 5 -p tcp -e 1040 -c 1 -i 15 -a 1 -x {2.0 4.0 4 ------- null}
r -t 0.424432 -s 5 -d 1 -p ack -e 40 -c 0 -i 10 -a 0 -x {3.0 1.0 2 ------- null}
h -t 0.424432 -s 1 -d 5 -p tcp -e 1040 -c 0 -i 16 -a 0 -x {1.0 3.0 5 ------- null}
h -t 0.424432 -s 1 -d 5 -p tcp -e 1040 -c 0 -i 17 -a 0 -x {1.0 3.0 6 ------- null}
r -t 0.424432 -s 5 -d 2 -p ack -e 40 -c 1 -i 11 -a 1 -x {4.0 2.0 2 ------- null}
h -t 0.424432 -s 2 -d 5 -p tcp -e 1040 -c 1 -i 18 -a 1 -x {2.0 4.0 5 ------- null}
h -t 0.424432 -s 2 -d 5 -p tcp -e 1040 -c 1 -i 19 -a 1 -x {2.0 4.0 6 ------- null}
+ -t 0.460016 -s 1 -d 5 -p tcp -e 1040 -c 0 -i 12 -a 0 -x {1.0 3.0 3 ------- null}
- -t 0.460016 -s 1 -d 5 -p tcp -e 1040 -c 0 -i 12 -a 0 -x {1.0 3.0 3 ------- null}
h -t 0.460016 -s 1 -d 5 -p tcp -e 1040 -c 0 -i 12 -a 0 -x {1.0 3.0 -1 ------- null}
+ -t 0.460016 -s 1 -d 5 -p tcp -e 1040 -c 0 -i 13 -a 0 -x {1.0 3.0 4 ------- null}
+ -t 0.460016 -s 2 -d 5 -p tcp -e 1040 -c 1 -i 14 -a 1 -x {2.0 4.0 3 ------- null}
- -t 0.460016 -s 2 -d 5 -p tcp -e 1040 -c 1 -i 14 -a 1 -x {2.0 4.0 3 ------- null}
h -t 0.460016 -s 2 -d 5 -p tcp -e 1040 -c 1 -i 14 -a 1 -x {2.0 4.0 -1 ------- null}
+ -t 0.460016 -s 2 -d 5 -p tcp -e 1040 -c 1 -i 15 -a 1 -x {2.0 4.0 4 ------- null}
d -t 0.46002 -s 4 -d 5 -p tcp -e 1040 -c 0 -i 12 -a 0 -x {1.0 3.0 3 ------- null}
d -t 0.46002 -s 2 -d 5 -p tcp -e 1040 -c 0 -i 12 -a 0 -x {1.0 3.0 3 ------- null}
d -t 0.46002 -s 0 -d 5 -p tcp -e 1040 -c 0 -i 12 -a 0 -x {1.0 3.0 3 ------- null}
d -t 0.46002 -s 3 -d 5 -p tcp -e 1040 -c 1 -i 14 -a 1 -x {2.0 4.0 3 ------- null}
d -t 0.46002 -s 1 -d 5 -p tcp -e 1040 -c 1 -i 14 -a 1 -x {2.0 4.0 3 ------- null}
d -t 0.46002 -s 0 -d 5 -p tcp -e 1040 -c 1 -i 14 -a 1 -x {2.0 4.0 3 ------- null}
+ -t 0.464432 -s 1 -d 5 -p tcp -e 1040 -c 0 -i 16 -a 0 -x {1.0 3.0 5 ------- null}
+ -t 0.464432 -s 1 -d 5 -p tcp -e 1040 -c 0 -i 17 -a 0 -x {1.0 3.0 6 ------- null}
+ -t 0.464432 -s 2 -d 5 -p tcp -e 1040 -c 1 -i 18 -a 1 -x {2.0 4.0 5 ------- null}
+ -t 0.464432 -s 2 -d 5 -p tcp -e 1040 -c 1 -i 19 -a 1 -x {2.0 4.0 6 ------- null}
- -t 0.464432 -s 1 -d 5 -p tcp -e 1040 -c 0 -i 13 -a 0 -x {1.0 3.0 4 ------- null}
h -t 0.464432 -s 1 -d 5 -p tcp -e 1040 -c 0 -i 13 -a 0 -x {1.0 3.0 -1 ------- null}
- -t 0.464432 -s 2 -d 5 -p tcp -e 1040 -c 1 -i 15 -a 1 -x {2.0 4.0 4 ------- null}
h -t 0.464432 -s 2 -d 5 -p tcp -e 1040 -c 1 -i 15 -a 1 -x {2.0 4.0 -1 ------- null}
d -t 0.464436 -s 4 -d 5 -p tcp -e 1040 -c 0 -i 13 -a 0 -x {1.0 3.0 4 ------- null}
d -t 0.464436 -s 2 -d 5 -p tcp -e 1040 -c 0 -i 13 -a 0 -x {1.0 3.0 4 ------- null}
d -t 0.464436 -s 0 -d 5 -p tcp -e 1040 -c 0 -i 13 -a 0 -x {1.0 3.0 4 ------- null}
d -t 0.464436 -s 3 -d 5 -p tcp -e 1040 -c 1 -i 15 -a 1 -x {2.0 4.0 4 ------- null}
d -t 0.464436 -s 1 -d 5 -p tcp -e 1040 -c 1 -i 15 -a 1 -x {2.0 4.0 4 ------- null}
d -t 0.464436 -s 0 -d 5 -p tcp -e 1040 -c 1 -i 15 -a 1 -x {2.0 4.0 4 ------- null}
- -t 0.468848 -s 1 -d 5 -p tcp -e 1040 -c 0 -i 16 -a 0 -x {1.0 3.0 5 ------- null}
h -t 0.468848 -s 1 -d 5 -p tcp -e 1040 -c 0 -i 16 -a 0 -x {1.0 3.0 -1 ------- null}
- -t 0.468848 -s 2 -d 5 -p tcp -e 1040 -c 1 -i 18 -a 1 -x {2.0 4.0 5 ------- null}
h -t 0.468848 -s 2 -d 5 -p tcp -e 1040 -c 1 -i 18 -a 1 -x {2.0 4.0 -1 ------- null}
d -t 0.468852 -s 4 -d 5 -p tcp -e 1040 -c 0 -i 16 -a 0 -x {1.0 3.0 5 ------- null}
d -t 0.468852 -s 2 -d 5 -p tcp -e 1040 -c 0 -i 16 -a 0 -x {1.0 3.0 5 ------- null}
d -t 0.468852 -s 0 -d 5 -p tcp -e 1040 -c 0 -i 16 -a 0 -x {1.0 3.0 5 ------- null}
d -t 0.468852 -s 3 -d 5 -p tcp -e 1040 -c 1 -i 18 -a 1 -x {2.0 4.0 5 ------- null}
d -t 0.468852 -s 1 -d 5 -p tcp -e 1040 -c 1 -i 18 -a 1 -x {2.0 4.0 5 ------- null}
d -t 0.468852 -s 0 -d 5 -p tcp -e 1040 -c 1 -i 18 -a 1 -x {2.0 4.0 5 ------- null}
- -t 0.473264 -s 1 -d 5 -p tcp -e 1040 -c 0 -i 17 -a 0 -x {1.0 3.0 6 ------- null}
h -t 0.473264 -s 1 -d 5 -p tcp -e 1040 -c 0 -i 17 -a 0 -x {1.0 3.0 -1 ------- null}
- -t 0.473264 -s 2 -d 5 -p tcp -e 1040 -c 1 -i 19 -a 1 -x {2.0 4.0 6 ------- null}
h -t 0.473264 -s 2 -d 5 -p tcp -e 1040 -c 1 -i 19 -a 1 -x {2.0 4.0 -1 ------- null}
d -t 0.473268 -s 4 -d 5 -p tcp -e 1040 -c 0 -i 17 -a 0 -x {1.0 3.0 6 ------- null}
d -t 0.473268 -s 2 -d 5 -p tcp -e 1040 -c 0 -i 17 -a 0 -x {1.0 3.0 6 ------- null}
d -t 0.473268 -s 0 -d 5 -p tcp -e 1040 -c 0 -i 17 -a 0 -x {1.0 3.0 6 ------- null}
d -t 0.473268 -s 3 -d 5 -p tcp -e 1040 -c 1 -i 19 -a 1 -x {2.0 4.0 6 ------- null}
d -t 0.473268 -s 1 -d 5 -p tcp -e 1040 -c 1 -i 19 -a 1 -x {2.0 4.0 6 ------- null}
d -t 0.473268 -s 0 -d 5 -p tcp -e 1040 -c 1 -i 19 -a 1 -x {2.0 4.0 6 ------- null}
r -t 0.50002 -s 5 -d 3 -p tcp -e 1040 -c 0 -i 12 -a 0 -x {1.0 3.0 3 ------- null}
h -t 0.50002 -s 3 -d 5 -p ack -e 40 -c 0 -i 20 -a 0 -x {3.0 1.0 3 ------- null}
r -t 0.50002 -s 5 -d 4 -p tcp -e 1040 -c 1 -i 14 -a 1 -x {2.0 4.0 3 ------- null}
h -t 0.50002 -s 4 -d 5 -p ack -e 40 -c 1 -i 21 -a 1 -x {4.0 2.0 3 ------- null}
r -t 0.504436 -s 5 -d 3 -p tcp -e 1040 -c 0 -i 13 -a 0 -x {1.0 3.0 4 ------- null}
h -t 0.504436 -s 3 -d 5 -p ack -e 40 -c 0 -i 22 -a 0 -x {3.0 1.0 4 ------- null}
r -t 0.504436 -s 5 -d 4 -p tcp -e 1040 -c 1 -i 15 -a 1 -x {2.0 4.0 4 ------- null}
h -t 0.504436 -s 4 -d 5 -p ack -e 40 -c 1 -i 23 -a 1 -x {4.0 2.0 4 ------- null}
r -t 0.508852 -s 5 -d 3 -p tcp -e 1040 -c 0 -i 16 -a 0 -x {1.0 3.0 5 ------- null}
h -t 0.508852 -s 3 -d 5 -p ack -e 40 -c 0 -i 24 -a 0 -x {3.0 1.0 5 ------- null}
r -t 0.508852 -s 5 -d 4 -p tcp -e 1040 -c 1 -i 18 -a 1 -x {2.0 4.0 5 ------- null}
h -t 0.508852 -s 4 -d 5 -p ack -e 40 -c 1 -i 25 -a 1 -x {4.0 2.0 5 ------- null}
r -t 0.513268 -s 5 -d 3 -p tcp -e 1040 -c 0 -i 17 -a 0 -x {1.0 3.0 6 ------- null}
h -t 0.513268 -s 3 -d 5 -p ack -e 40 -c 0 -i 26 -a 0 -x {3.0 1.0 6 ------- null}
r -t 0.513268 -s 5 -d 4 -p tcp -e 1040 -c 1 -i 19 -a 1 -x {2.0 4.0 6 ------- null}
h -t 0.513268 -s 4 -d 5 -p ack -e 40 -c 1 -i 27 -a 1 -x {4.0 2.0 6 ------- null}
+ -t 0.54002 -s 3 -d 5 -p ack -e 40 -c 0 -i 20 -a 0 -x {3.0 1.0 3 ------- null}
- -t 0.54002 -s 3 -d 5 -p ack -e 40 -c 0 -i 20 -a 0 -x {3.0 1.0 3 ------- null}
h -t 0.54002 -s 3 -d 5 -p ack -e 40 -c 0 -i 20 -a 0 -x {3.0 1.0 -1 ------- null}
+ -t 0.54002 -s 4 -d 5 -p ack -e 40 -c 1 -i 21 -a 1 -x {4.0 2.0 3 ------- null}
- -t 0.54002 -s 4 -d 5 -p ack -e 40 -c 1 -i 21 -a 1 -x {4.0 2.0 3 ------- null}
h -t 0.54002 -s 4 -d 5 -p ack -e 40 -c 1 -i 21 -a 1 -x {4.0 2.0 -1 ------- null}
d -t 0.540024 -s 4 -d 5 -p ack -e 40 -c 0 -i 20 -a 0 -x {3.0 1.0 3 ------- null}
d -t 0.540024 -s 2 -d 5 -p ack -e 40 -c 0 -i 20 -a 0 -x {3.0 1.0 3 ------- null}
d -t 0.540024 -s 0 -d 5 -p ack -e 40 -c 0 -i 20 -a 0 -x {3.0 1.0 3 ------- null}
d -t 0.540024 -s 3 -d 5 -p ack -e 40 -c 1 -i 21 -a 1 -x {4.0 2.0 3 ------- null}
d -t 0.540024 -s 1 -d 5 -p ack -e 40 -c 1 -i 21 -a 1 -x {4.0 2.0 3 ------- null}
d -t 0.540024 -s 0 -d 5 -p ack -e 40 -c 1 -i 21 -a 1 -x {4.0 2.0 3 ------- null}
+ -t 0.544436 -s 3 -d 5 -p ack -e 40 -c 0 -i 22 -a 0 -x {3.0 1.0 4 ------- null}
- -t 0.544436 -s 3 -d 5 -p ack -e 40 -c 0 -i 22 -a 0 -x {3.0 1.0 4 ------- null}
h -t 0.544436 -s 3 -d 5 -p ack -e 40 -c 0 -i 22 -a 0 -x {3.0 1.0 -1 ------- null}
+ -t 0.544436 -s 4 -d 5 -p ack -e 40 -c 1 -i 23 -a 1 -x {4.0 2.0 4 ------- null}
- -t 0.544436 -s 4 -d 5 -p ack -e 40 -c 1 -i 23 -a 1 -x {4.0 2.0 4 ------- null}
h -t 0.544436 -s 4 -d 5 -p ack -e 40 -c 1 -i 23 -a 1 -x {4.0 2.0 -1 ------- null}
d -t 0.54444 -s 4 -d 5 -p ack -e 40 -c 0 -i 22 -a 0 -x {3.0 1.0 4 ------- null}
d -t 0.54444 -s 2 -d 5 -p ack -e 40 -c 0 -i 22 -a 0 -x {3.0 1.0 4 ------- null}
d -t 0.54444 -s 0 -d 5 -p ack -e 40 -c 0 -i 22 -a 0 -x {3.0 1.0 4 ------- null}
d -t 0.54444 -s 3 -d 5 -p ack -e 40 -c 1 -i 23 -a 1 -x {4.0 2.0 4 ------- null}
d -t 0.54444 -s 1 -d 5 -p ack -e 40 -c 1 -i 23 -a 1 -x {4.0 2.0 4 ------- null}
d -t 0.54444 -s 0 -d 5 -p ack -e 40 -c 1 -i 23 -a 1 -x {4.0 2.0 4 ------- null}
+ -t 0.548852 -s 3 -d 5 -p ack -e 40 -c 0 -i 24 -a 0 -x {3.0 1.0 5 ------- null}
- -t 0.548852 -s 3 -d 5 -p ack -e 40 -c 0 -i 24 -a 0 -x {3.0 1.0 5 ------- null}
h -t 0.548852 -s 3 -d 5 -p ack -e 40 -c 0 -i 24 -a 0 -x {3.0 1.0 -1 ------- null}
+ -t 0.548852 -s 4 -d 5 -p ack -e 40 -c 1 -i 25 -a 1 -x {4.0 2.0 5 ------- null}
- -t 0.548852 -s 4 -d 5 -p ack -e 40 -c 1 -i 25 -a 1 -x {4.0 2.0 5 ------- null}
h -t 0.548852 -s 4 -d 5 -p ack -e 40 -c 1 -i 25 -a 1 -x {4.0 2.0 -1 ------- null}
d -t 0.548856 -s 4 -d 5 -p ack -e 40 -c 0 -i 24 -a 0 -x {3.0 1.0 5 ------- null}
d -t 0.548856 -s 2 -d 5 -p ack -e 40 -c 0 -i 24 -a 0 -x {3.0 1.0 5 ------- null}
d -t 0.548856 -s 0 -d 5 -p ack -e 40 -c 0 -i 24 -a 0 -x {3.0 1.0 5 ------- null}
d -t 0.548856 -s 3 -d 5 -p ack -e 40 -c 1 -i 25 -a 1 -x {4.0 2.0 5 ------- null}
d -t 0.548856 -s 1 -d 5 -p ack -e 40 -c 1 -i 25 -a 1 -x {4.0 2.0 5 ------- null}
d -t 0.548856 -s 0 -d 5 -p ack -e 40 -c 1 -i 25 -a 1 -x {4.0 2.0 5 ------- null}
+ -t 0.553268 -s 3 -d 5 -p ack -e 40 -c 0 -i 26 -a 0 -x {3.0 1.0 6 ------- null}
- -t 0.553268 -s 3 -d 5 -p ack -e 40 -c 0 -i 26 -a 0 -x {3.0 1.0 6 ------- null}
h -t 0.553268 -s 3 -d 5 -p ack -e 40 -c 0 -i 26 -a 0 -x {3.0 1.0 -1 ------- null}
+ -t 0.553268 -s 4 -d 5 -p ack -e 40 -c 1 -i 27 -a 1 -x {4.0 2.0 6 ------- null}
- -t 0.553268 -s 4 -d 5 -p ack -e 40 -c 1 -i 27 -a 1 -x {4.0 2.0 6 ------- null}
h -t 0.553268 -s 4 -d 5 -p ack -e 40 -c 1 -i 27 -a 1 -x {4.0 2.0 -1 ------- null}
d -t 0.553272 -s 4 -d 5 -p ack -e 40 -c 0 -i 26 -a 0 -x {3.0 1.0 6 ------- null}
d -t 0.553272 -s 2 -d 5 -p ack -e 40 -c 0 -i 26 -a 0 -x {3.0 1.0 6 ------- null}
d -t 0.553272 -s 0 -d 5 -p ack -e 40 -c 0 -i 26 -a 0 -x {3.0 1.0 6 ------- null}
d -t 0.553272 -s 3 -d 5 -p ack -e 40 -c 1 -i 27 -a 1 -x {4.0 2.0 6 ------- null}
d -t 0.553272 -s 1 -d 5 -p ack -e 40 -c 1 -i 27 -a 1 -x {4.0 2.0 6 ------- null}
d -t 0.553272 -s 0 -d 5 -p ack -e 40 -c 1 -i 27 -a 1 -x {4.0 2.0 6 ------- null}
r -t 0.580024 -s 5 -d 1 -p ack -e 40 -c 0 -i 20 -a 0 -x {3.0 1.0 3 ------- null}
h -t 0.580024 -s 1 -d 5 -p tcp -e 1040 -c 0 -i 28 -a 0 -x {1.0 3.0 7 ------- null}
h -t 0.580024 -s 1 -d 5 -p tcp -e 1040 -c 0 -i 29 -a 0 -x {1.0 3.0 8 ------- null}
r -t 0.580024 -s 5 -d 2 -p ack -e 40 -c 1 -i 21 -a 1 -x {4.0 2.0 3 ------- null}
h -t 0.580024 -s 2 -d 5 -p tcp -e 1040 -c 1 -i 30 -a 1 -x {2.0 4.0 7 ------- null}
h -t 0.580024 -s 2 -d 5 -p tcp -e 1040 -c 1 -i 31 -a 1 -x {2.0 4.0 8 ------- null}
r -t 0.58444 -s 5 -d 1 -p ack -e 40 -c 0 -i 22 -a 0 -x {3.0 1.0 4 ------- null}
h -t 0.58444 -s 1 -d 5 -p tcp -e 1040 -c 0 -i 32 -a 0 -x {1.0 3.0 9 ------- null}
h -t 0.58444 -s 1 -d 5 -p tcp -e 1040 -c 0 -i 33 -a 0 -x {1.0 3.0 10 ------- null}
r -t 0.58444 -s 5 -d 2 -p ack -e 40 -c 1 -i 23 -a 1 -x {4.0 2.0 4 ------- null}
h -t 0.58444 -s 2 -d 5 -p tcp -e 1040 -c 1 -i 34 -a 1 -x {2.0 4.0 9 ------- null}
h -t 0.58444 -s 2 -d 5 -p tcp -e 1040 -c 1 -i 35 -a 1 -x {2.0 4.0 10 ------- null}
r -t 0.588856 -s 5 -d 1 -p ack -e 40 -c 0 -i 24 -a 0 -x {3.0 1.0 5 ------- null}
h -t 0.588856 -s 1 -d 5 -p tcp -e 1040 -c 0 -i 36 -a 0 -x {1.0 3.0 11 ------- null}
h -t 0.588856 -s 1 -d 5 -p tcp -e 1040 -c 0 -i 37 -a 0 -x {1.0 3.0 12 ------- null}
r -t 0.588856 -s 5 -d 2 -p ack -e 40 -c 1 -i 25 -a 1 -x {4.0 2.0 5 ------- null}
h -t 0.588856 -s 2 -d 5 -p tcp -e 1040 -c 1 -i 38 -a 1 -x {2.0 4.0 11 ------- null}
h -t 0.588856 -s 2 -d 5 -p tcp -e 1040 -c 1 -i 39 -a 1 -x {2.0 4.0 12 ------- null}
r -t 0.593272 -s 5 -d 1 -p ack -e 40 -c 0 -i 26 -a 0 -x {3.0 1.0 6 ------- null}
h -t 0.593272 -s 1 -d 5 -p tcp -e 1040 -c 0 -i 40 -a 0 -x {1.0 3.0 13 ------- null}
h -t 0.593272 -s 1 -d 5 -p tcp -e 1040 -c 0 -i 41 -a 0 -x {1.0 3.0 14 ------- null}
r -t 0.593272 -s 5 -d 2 -p ack -e 40 -c 1 -i 27 -a 1 -x {4.0 2.0 6 ------- null}
h -t 0.593272 -s 2 -d 5 -p tcp -e 1040 -c 1 -i 42 -a 1 -x {2.0 4.0 13 ------- null}
h -t 0.593272 -s 2 -d 5 -p tcp -e 1040 -c 1 -i 43 -a 1 -x {2.0 4.0 14 ------- null}
+ -t 0.620024 -s 1 -d 5 -p tcp -e 1040 -c 0 -i 28 -a 0 -x {1.0 3.0 7 ------- null}
- -t 0.620024 -s 1 -d 5 -p tcp -e 1040 -c 0 -i 28 -a 0 -x {1.0 3.0 7 ------- null}
h -t 0.620024 -s 1 -d 5 -p tcp -e 1040 -c 0 -i 28 -a 0 -x {1.0 3.0 -1 ------- null}
+ -t 0.620024 -s 1 -d 5 -p tcp -e 1040 -c 0 -i 29 -a 0 -x {1.0 3.0 8 ------- null}
+ -t 0.620024 -s 2 -d 5 -p tcp -e 1040 -c 1 -i 30 -a 1 -x {2.0 4.0 7 ------- null}
- -t 0.620024 -s 2 -d 5 -p tcp -e 1040 -c 1 -i 30 -a 1 -x {2.0 4.0 7 ------- null}
h -t 0.620024 -s 2 -d 5 -p tcp -e 1040 -c 1 -i 30 -a 1 -x {2.0 4.0 -1 ------- null}
+ -t 0.620024 -s 2 -d 5 -p tcp -e 1040 -c 1 -i 31 -a 1 -x {2.0 4.0 8 ------- null}
d -t 0.620028 -s 4 -d 5 -p tcp -e 1040 -c 0 -i 28 -a 0 -x {1.0 3.0 7 ------- null}
d -t 0.620028 -s 2 -d 5 -p tcp -e 1040 -c 0 -i 28 -a 0 -x {1.0 3.0 7 ------- null}
d -t 0.620028 -s 0 -d 5 -p tcp -e 1040 -c 0 -i 28 -a 0 -x {1.0 3.0 7 ------- null}
d -t 0.620028 -s 3 -d 5 -p tcp -e 1040 -c 1 -i 30 -a 1 -x {2.0 4.0 7 ------- null}
d -t 0.620028 -s 1 -d 5 -p tcp -e 1040 -c 1 -i 30 -a 1 -x {2.0 4.0 7 ------- null}
d -t 0.620028 -s 0 -d 5 -p tcp -e 1040 -c 1 -i 30 -a 1 -x {2.0 4.0 7 ------- null}
+ -t 0.62444 -s 1 -d 5 -p tcp -e 1040 -c 0 -i 32 -a 0 -x {1.0 3.0 9 ------- null}
+ -t 0.62444 -s 1 -d 5 -p tcp -e 1040 -c 0 -i 33 -a 0 -x {1.0 3.0 10 ------- null}
+ -t 0.62444 -s 2 -d 5 -p tcp -e 1040 -c 1 -i 34 -a 1 -x {2.0 4.0 9 ------- null}
+ -t 0.62444 -s 2 -d 5 -p tcp -e 1040 -c 1 -i 35 -a 1 -x {2.0 4.0 10 ------- null}
- -t 0.62444 -s 1 -d 5 -p tcp -e 1040 -c 0 -i 29 -a 0 -x {1.0 3.0 8 ------- null}
h -t 0.62444 -s 1 -d 5 -p tcp -e 1040 -c 0 -i 29 -a 0 -x {1.0 3.0 -1 ------- null}
- -t 0.62444 -s 2 -d 5 -p tcp -e 1040 -c 1 -i 31 -a 1 -x {2.0 4.0 8 ------- null}
h -t 0.62444 -s 2 -d 5 -p tcp -e 1040 -c 1 -i 31 -a 1 -x {2.0 4.0 -1 ------- null}
d -t 0.624444 -s 4 -d 5 -p tcp -e 1040 -c 0 -i 29 -a 0 -x {1.0 3.0 8 ------- null}
d -t 0.624444 -s 2 -d 5 -p tcp -e 1040 -c 0 -i 29 -a 0 -x {1.0 3.0 8 ------- null}
d -t 0.624444 -s 0 -d 5 -p tcp -e 1040 -c 0 -i 29 -a 0 -x {1.0 3.0 8 ------- null}
d -t 0.624444 -s 3 -d 5 -p tcp -e 1040 -c 1 -i 31 -a 1 -x {2.0 4.0 8 ------- null}
d -t 0.624444 -s 1 -d 5 -p tcp -e 1040 -c 1 -i 31 -a 1 -x {2.0 4.0 8 ------- null}
d -t 0.624444 -s 0 -d 5 -p tcp -e 1040 -c 1 -i 31 -a 1 -x {2.0 4.0 8 ------- null}
+ -t 0.628856 -s 1 -d 5 -p tcp -e 1040 -c 0 -i 36 -a 0 -x {1.0 3.0 11 ------- null}
+ -t 0.628856 -s 1 -d 5 -p tcp -e 1040 -c 0 -i 37 -a 0 -x {1.0 3.0 12 ------- null}
+ -t 0.628856 -s 2 -d 5 -p tcp -e 1040 -c 1 -i 38 -a 1 -x {2.0 4.0 11 ------- null}
+ -t 0.628856 -s 2 -d 5 -p tcp -e 1040 -c 1 -i 39 -a 1 -x {2.0 4.0 12 ------- null}
- -t 0.628856 -s 1 -d 5 -p tcp -e 1040 -c 0 -i 32 -a 0 -x {1.0 3.0 9 ------- null}
h -t 0.628856 -s 1 -d 5 -p tcp -e 1040 -c 0 -i 32 -a 0 -x {1.0 3.0 -1 ------- null}
- -t 0.628856 -s 2 -d 5 -p tcp -e 1040 -c 1 -i 34 -a 1 -x {2.0 4.0 9 ------- null}
h -t 0.628856 -s 2 -d 5 -p tcp -e 1040 -c 1 -i 34 -a 1 -x {2.0 4.0 -1 ------- null}
d -t 0.62886 -s 4 -d 5 -p tcp -e 1040 -c 0 -i 32 -a 0 -x {1.0 3.0 9 ------- null}
d -t 0.62886 -s 2 -d 5 -p tcp -e 1040 -c 0 -i 32 -a 0 -x {1.0 3.0 9 ------- null}
d -t 0.62886 -s 0 -d 5 -p tcp -e 1040 -c 0 -i 32 -a 0 -x {1.0 3.0 9 ------- null}
d -t 0.62886 -s 3 -d 5 -p tcp -e 1040 -c 1 -i 34 -a 1 -x {2.0 4.0 9 ------- null}
d -t 0.62886 -s 1 -d 5 -p tcp -e 1040 -c 1 -i 34 -a 1 -x {2.0 4.0 9 ------- null}
d -t 0.62886 -s 0 -d 5 -p tcp -e 1040 -c 1 -i 34 -a 1 -x {2.0 4.0 9 ------- null}
+ -t 0.633272 -s 1 -d 5 -p tcp -e 1040 -c 0 -i 40 -a 0 -x {1.0 3.0 13 ------- null}
+ -t 0.633272 -s 1 -d 5 -p tcp -e 1040 -c 0 -i 41 -a 0 -x {1.0 3.0 14 ------- null}
+ -t 0.633272 -s 2 -d 5 -p tcp -e 1040 -c 1 -i 42 -a 1 -x {2.0 4.0 13 ------- null}
+ -t 0.633272 -s 2 -d 5 -p tcp -e 1040 -c 1 -i 43 -a 1 -x {2.0 4.0 14 ------- null}
- -t 0.633272 -s 1 -d 5 -p tcp -e 1040 -c 0 -i 33 -a 0 -x {1.0 3.0 10 ------- null}
h -t 0.633272 -s 1 -d 5 -p tcp -e 1040 -c 0 -i 33 -a 0 -x {1.0 3.0 -1 ------- null}
- -t 0.633272 -s 2 -d 5 -p tcp -e 1040 -c 1 -i 35 -a 1 -x {2.0 4.0 10 ------- null}
h -t 0.633272 -s 2 -d 5 -p tcp -e 1040 -c 1 -i 35 -a 1 -x {2.0 4.0 -1 ------- null}
d -t 0.633276 -s 4 -d 5 -p tcp -e 1040 -c 0 -i 33 -a 0 -x {1.0 3.0 10 ------- null}
d -t 0.633276 -s 2 -d 5 -p tcp -e 1040 -c 0 -i 33 -a 0 -x {1.0 3.0 10 ------- null}
d -t 0.633276 -s 0 -d 5 -p tcp -e 1040 -c 0 -i 33 -a 0 -x {1.0 3.0 10 ------- null}
d -t 0.633276 -s 3 -d 5 -p tcp -e 1040 -c 1 -i 35 -a 1 -x {2.0 4.0 10 ------- null}
d -t 0.633276 -s 1 -d 5 -p tcp -e 1040 -c 1 -i 35 -a 1 -x {2.0 4.0 10 ------- null}
d -t 0.633276 -s 0 -d 5 -p tcp -e 1040 -c 1 -i 35 -a 1 -x {2.0 4.0 10 ------- null}
- -t 0.637688 -s 1 -d 5 -p tcp -e 1040 -c 0 -i 36 -a 0 -x {1.0 3.0 11 ------- null}
h -t 0.637688 -s 1 -d 5 -p tcp -e 1040 -c 0 -i 36 -a 0 -x {1.0 3.0 -1 ------- null}
- -t 0.637688 -s 2 -d 5 -p tcp -e 1040 -c 1 -i 38 -a 1 -x {2.0 4.0 11 ------- null}
h -t 0.637688 -s 2 -d 5 -p tcp -e 1040 -c 1 -i 38 -a 1 -x {2.0 4.0 -1 ------- null}
d -t 0.637692 -s 4 -d 5 -p tcp -e 1040 -c 0 -i 36 -a 0 -x {1.0 3.0 11 ------- null}
d -t 0.637692 -s 2 -d 5 -p tcp -e 1040 -c 0 -i 36 -a 0 -x {1.0 3.0 11 ------- null}
d -t 0.637692 -s 0 -d 5 -p tcp -e 1040 -c 0 -i 36 -a 0 -x {1.0 3.0 11 ------- null}
d -t 0.637692 -s 3 -d 5 -p tcp -e 1040 -c 1 -i 38 -a 1 -x {2.0 4.0 11 ------- null}
d -t 0.637692 -s 1 -d 5 -p tcp -e 1040 -c 1 -i 38 -a 1 -x {2.0 4.0 11 ------- null}
d -t 0.637692 -s 0 -d 5 -p tcp -e 1040 -c 1 -i 38 -a 1 -x {2.0 4.0 11 ------- null}
- -t 0.642104 -s 1 -d 5 -p tcp -e 1040 -c 0 -i 37 -a 0 -x {1.0 3.0 12 ------- null}
h -t 0.642104 -s 1 -d 5 -p tcp -e 1040 -c 0 -i 37 -a 0 -x {1.0 3.0 -1 ------- null}
- -t 0.642104 -s 2 -d 5 -p tcp -e 1040 -c 1 -i 39 -a 1 -x {2.0 4.0 12 ------- null}
h -t 0.642104 -s 2 -d 5 -p tcp -e 1040 -c 1 -i 39 -a 1 -x {2.0 4.0 -1 ------- null}
d -t 0.642108 -s 4 -d 5 -p tcp -e 1040 -c 0 -i 37 -a 0 -x {1.0 3.0 12 ------- null}
d -t 0.642108 -s 2 -d 5 -p tcp -e 1040 -c 0 -i 37 -a 0 -x {1.0 3.0 12 ------- null}
d -t 0.642108 -s 0 -d 5 -p tcp -e 1040 -c 0 -i 37 -a 0 -x {1.0 3.0 12 ------- null}
d -t 0.642108 -s 3 -d 5 -p tcp -e 1040 -c 1 -i 39 -a 1 -x {2.0 4.0 12 ------- null}
d -t 0.642108 -s 1 -d 5 -p tcp -e 1040 -c 1 -i 39 -a 1 -x {2.0 4.0 12 ------- null}
d -t 0.642108 -s 0 -d 5 -p tcp -e 1040 -c 1 -i 39 -a 1 -x {2.0 4.0 12 ------- null}
- -t 0.64652 -s 1 -d 5 -p tcp -e 1040 -c 0 -i 40 -a 0 -x {1.0 3.0 13 ------- null}
h -t 0.64652 -s 1 -d 5 -p tcp -e 1040 -c 0 -i 40 -a 0 -x {1.0 3.0 -1 ------- null}
- -t 0.64652 -s 2 -d 5 -p tcp -e 1040 -c 1 -i 42 -a 1 -x {2.0 4.0 13 ------- null}
h -t 0.64652 -s 2 -d 5 -p tcp -e 1040 -c 1 -i 42 -a 1 -x {2.0 4.0 -1 ------- null}
d -t 0.646524 -s 4 -d 5 -p tcp -e 1040 -c 0 -i 40 -a 0 -x {1.0 3.0 13 ------- null}
d -t 0.646524 -s 2 -d 5 -p tcp -e 1040 -c 0 -i 40 -a 0 -x {1.0 3.0 13 ------- null}
d -t 0.646524 -s 0 -d 5 -p tcp -e 1040 -c 0 -i 40 -a 0 -x {1.0 3.0 13 ------- null}
d -t 0.646524 -s 3 -d 5 -p tcp -e 1040 -c 1 -i 42 -a 1 -x {2.0 4.0 13 ------- null}
d -t 0.646524 -s 1 -d 5 -p tcp -e 1040 -c 1 -i 42 -a 1 -x {2.0 4.0 13 ------- null}
d -t 0.646524 -s 0 -d 5 -p tcp -e 1040 -c 1 -i 42 -a 1 -x {2.0 4.0 13 ------- null}
- -t 0.650936 -s 1 -d 5 -p tcp -e 1040 -c 0 -i 41 -a 0 -x {1.0 3.0 14 ------- null}
h -t 0.650936 -s 1 -d 5 -p tcp -e 1040 -c 0 -i 41 -a 0 -x {1.0 3.0 -1 ------- null}
- -t 0.650936 -s 2 -d 5 -p tcp -e 1040 -c 1 -i 43 -a 1 -x {2.0 4.0 14 ------- null}
h -t 0.650936 -s 2 -d 5 -p tcp -e 1040 -c 1 -i 43 -a 1 -x {2.0 4.0 -1 ------- null}
d -t 0.65094 -s 4 -d 5 -p tcp -e 1040 -c 0 -i 41 -a 0 -x {1.0 3.0 14 ------- null}
d -t 0.65094 -s 2 -d 5 -p tcp -e 1040 -c 0 -i 41 -a 0 -x {1.0 3.0 14 ------- null}
d -t 0.65094 -s 0 -d 5 -p tcp -e 1040 -c 0 -i 41 -a 0 -x {1.0 3.0 14 ------- null}
d -t 0.65094 -s 3 -d 5 -p tcp -e 1040 -c 1 -i 43 -a 1 -x {2.0 4.0 14 ------- null}
d -t 0.65094 -s 1 -d 5 -p tcp -e 1040 -c 1 -i 43 -a 1 -x {2.0 4.0 14 ------- null}
d -t 0.65094 -s 0 -d 5 -p tcp -e 1040 -c 1 -i 43 -a 1 -x {2.0 4.0 14 ------- null}
r -t 0.660028 -s 5 -d 3 -p tcp -e 1040 -c 0 -i 28 -a 0 -x {1.0 3.0 7 ------- null}
h -t 0.660028 -s 3 -d 5 -p ack -e 40 -c 0 -i 44 -a 0 -x {3.0 1.0 7 ------- null}
r -t 0.660028 -s 5 -d 4 -p tcp -e 1040 -c 1 -i 30 -a 1 -x {2.0 4.0 7 ------- null}
h -t 0.660028 -s 4 -d 5 -p ack -e 40 -c 1 -i 45 -a 1 -x {4.0 2.0 7 ------- null}
r -t 0.664444 -s 5 -d 3 -p tcp -e 1040 -c 0 -i 29 -a 0 -x {1.0 3.0 8 ------- null}
h -t 0.664444 -s 3 -d 5 -p ack -e 40 -c 0 -i 46 -a 0 -x {3.0 1.0 8 ------- null}
r -t 0.664444 -s 5 -d 4 -p tcp -e 1040 -c 1 -i 31 -a 1 -x {2.0 4.0 8 ------- null}
h -t 0.664444 -s 4 -d 5 -p ack -e 40 -c 1 -i 47 -a 1 -x {4.0 2.0 8 ------- null}
r -t 0.66886 -s 5 -d 3 -p tcp -e 1040 -c 0 -i 32 -a 0 -x {1.0 3.0 9 ------- null}
h -t 0.66886 -s 3 -d 5 -p ack -e 40 -c 0 -i 48 -a 0 -x {3.0 1.0 9 ------- null}
r -t 0.66886 -s 5 -d 4 -p tcp -e 1040 -c 1 -i 34 -a 1 -x {2.0 4.0 9 ------- null}
h -t 0.66886 -s 4 -d 5 -p ack -e 40 -c 1 -i 49 -a 1 -x {4.0 2.0 9 ------- null}
r -t 0.673276 -s 5 -d 3 -p tcp -e 1040 -c 0 -i 33 -a 0 -x {1.0 3.0 10 ------- null}
h -t 0.673276 -s 3 -d 5 -p ack -e 40 -c 0 -i 50 -a 0 -x {3.0 1.0 10 ------- null}
r -t 0.673276 -s 5 -d 4 -p tcp -e 1040 -c 1 -i 35 -a 1 -x {2.0 4.0 10 ------- null}
h -t 0.673276 -s 4 -d 5 -p ack -e 40 -c 1 -i 51 -a 1 -x {4.0 2.0 10 ------- null}
r -t 0.677692 -s 5 -d 3 -p tcp -e 1040 -c 0 -i 36 -a 0 -x {1.0 3.0 11 ------- null}
h -t 0.677692 -s 3 -d 5 -p ack -e 40 -c 0 -i 52 -a 0 -x {3.0 1.0 11 ------- null}
r -t 0.677692 -s 5 -d 4 -p tcp -e 1040 -c 1 -i 38 -a 1 -x {2.0 4.0 11 ------- null}
h -t 0.677692 -s 4 -d 5 -p ack -e 40 -c 1 -i 53 -a 1 -x {4.0 2.0 11 ------- null}
r -t 0.682108 -s 5 -d 3 -p tcp -e 1040 -c 0 -i 37 -a 0 -x {1.0 3.0 12 ------- null}
h -t 0.682108 -s 3 -d 5 -p ack -e 40 -c 0 -i 54 -a 0 -x {3.0 1.0 12 ------- null}